# Projected DOS for atomic kind Br at iteration step i = 0, E(Fermi) =    -0.058922 a.u.
#     MO Eigenvalue [a.u.]      Occupation                 s                py                pz                px               d-2               d-1                d0               d+1               d+2
       1         -0.806592        2.000000        0.00440623        0.00000003        0.00265659        0.00000003        0.00000000        0.00000000        0.00021261        0.00000000        0.00000000
       2         -0.806522        2.000000        0.00437148        0.00000002        0.00256590        0.00000004        0.00000000        0.00000000        0.00021319        0.00000000        0.00000000
       3         -0.806289        2.000000        0.00476000        0.00000003        0.00268211        0.00000004        0.00000000        0.00000000        0.00021140        0.00000000        0.00000000
       4         -0.806256        2.000000        0.00474165        0.00000003        0.00255202        0.00000002        0.00000000        0.00000000        0.00020773        0.00000000        0.00000000
       5         -0.806064        2.000000        0.00496550        0.00000005        0.00194008        0.00000002        0.00000000        0.00000000        0.00017590        0.00000000        0.00000000
       6         -0.794178        2.000000        0.00120056        0.00048298        0.00079645        0.00142488        0.00000000        0.00000357        0.00018717        0.00001052        0.00001703
       7         -0.794171        2.000000        0.00120063        0.00133538        0.00079742        0.00057238        0.00000000        0.00000988        0.00018724        0.00000423        0.00001703
       8         -0.794168        2.000000        0.00120029        0.00143480        0.00079803        0.00047281        0.00000000        0.00001060        0.00018727        0.00000350        0.00001702
       9         -0.794160        2.000000        0.00120071        0.00056248        0.00079918        0.00134558        0.00000000        0.00000417        0.00018731        0.00000997        0.00001703
      10         -0.794110        2.000000        0.00118071        0.00101451        0.00076411        0.00088300        0.00000000        0.00000725        0.00018753        0.00000630        0.00001693
      11         -0.794109        2.000000        0.00118063        0.00118860        0.00076421        0.00070901        0.00000000        0.00000849        0.00018754        0.00000506        0.00001693
      12         -0.794107        2.000000        0.00118094        0.00070652        0.00076441        0.00119129        0.00000000        0.00000505        0.00018752        0.00000851        0.00001693
      13         -0.794102        2.000000        0.00118081        0.00088589        0.00076452        0.00101194        0.00000000        0.00000633        0.00018754        0.00000723        0.00001694
      14         -0.793898        2.000000        0.00125900        0.00091761        0.00091161        0.00091391        0.00000000        0.00000865        0.00019812        0.00000861        0.00001682
      15         -0.793896        2.000000        0.00125914        0.00098870        0.00091180        0.00084301        0.00000000        0.00000932        0.00019814        0.00000794        0.00001682
      16         -0.793891        2.000000        0.00125827        0.00098073        0.00091317        0.00085078        0.00000000        0.00000925        0.00019832        0.00000802        0.00001682
      17         -0.793889        2.000000        0.00125951        0.00077638        0.00091196        0.00105552        0.00000000        0.00000732        0.00019811        0.00000995        0.00001682
      18         -0.793872        2.000000        0.00123393        0.00112453        0.00087322        0.00069390        0.00000000        0.00001029        0.00019846        0.00000634        0.00001670
      19         -0.793870        2.000000        0.00123362        0.00158306        0.00087336        0.00023567        0.00000000        0.00001448        0.00019851        0.00000215        0.00001671
      20         -0.793868        2.000000        0.00123376        0.00022868        0.00087427        0.00158954        0.00000000        0.00000209        0.00019853        0.00001452        0.00001670
      21         -0.793863        2.000000        0.00123367        0.00070140        0.00087451        0.00111727        0.00000000        0.00000643        0.00019857        0.00001021        0.00001671
      22         -0.793701        2.000000        0.00119746        0.00118196        0.00076106        0.00061468        0.00000000        0.00000989        0.00019485        0.00000514        0.00001643
      23         -0.793700        2.000000        0.00119725        0.00056399        0.00076065        0.00123247        0.00000000        0.00000472        0.00019484        0.00001031        0.00001644
      24         -0.793698        2.000000        0.00119691        0.00076175        0.00076169        0.00103464        0.00000000        0.00000638        0.00019495        0.00000866        0.00001644
      25         -0.793696        2.000000        0.00119729        0.00108529        0.00076055        0.00071130        0.00000000        0.00000908        0.00019484        0.00000595        0.00001644
      26         -0.783375        2.000000        0.00042479        0.00123896        0.00039501        0.00123956        0.00000040        0.00001444        0.00013779        0.00001444        0.00000000
      27         -0.783373        2.000000        0.00042480        0.00123942        0.00039511        0.00123930        0.00000040        0.00001446        0.00013781        0.00001444        0.00000000
      28         -0.783365        2.000000        0.00042525        0.00123969        0.00039579        0.00123968        0.00000040        0.00001445        0.00013781        0.00001447        0.00000000
      29         -0.783362        2.000000        0.00042521        0.00123995        0.00039590        0.00123974        0.00000040        0.00001447        0.00013784        0.00001447        0.00000000
      30         -0.783314        2.000000        0.00041383        0.00123025        0.00037973        0.00122988        0.00000041        0.00001402        0.00013808        0.00001401        0.00000000
      31         -0.783314        2.000000        0.00041388        0.00123017        0.00037975        0.00123003        0.00000041        0.00001402        0.00013807        0.00001402        0.00000000
      32         -0.783313        2.000000        0.00041386        0.00123023        0.00037973        0.00122997        0.00000040        0.00001402        0.00013807        0.00001402        0.00000000
      33         -0.783312        2.000000        0.00041385        0.00123023        0.00037976        0.00122995        0.00000041        0.00001403        0.00013808        0.00001401        0.00000000
      34         -0.783117        2.000000        0.00045672        0.00120391        0.00043025        0.00120389        0.00000034        0.00001613        0.00014401        0.00001612        0.00000000
      35         -0.783115        2.000000        0.00045697        0.00120395        0.00043028        0.00120383        0.00000034        0.00001613        0.00014402        0.00001612        0.00000000
      36         -0.783114        2.000000        0.00045711        0.00120402        0.00043031        0.00120385        0.00000034        0.00001613        0.00014396        0.00001613        0.00000000
      37         -0.783113        2.000000        0.00045717        0.00120431        0.00043011        0.00120387        0.00000034        0.00001614        0.00014396        0.00001612        0.00000000
      38         -0.783099        2.000000        0.00044380        0.00119270        0.00041082        0.00119180        0.00000035        0.00001563        0.00014413        0.00001559        0.00000000
      39         -0.783097        2.000000        0.00044382        0.00119266        0.00041088        0.00119183        0.00000035        0.00001564        0.00014413        0.00001558        0.00000000
      40         -0.783097        2.000000        0.00044374        0.00119280        0.00041087        0.00119179        0.00000035        0.00001563        0.00014415        0.00001559        0.00000000
      41         -0.783096        2.000000        0.00044395        0.00119266        0.00041103        0.00119207        0.00000035        0.00001563        0.00014413        0.00001560        0.00000000
      42         -0.782946        2.000000        0.00042207        0.00116716        0.00035573        0.00116717        0.00000040        0.00001441        0.00014175        0.00001441        0.00000000
      43         -0.782945        2.000000        0.00042214        0.00116720        0.00035573        0.00116723        0.00000040        0.00001441        0.00014174        0.00001441        0.00000000
      44         -0.782944        2.000000        0.00042220        0.00116720        0.00035586        0.00116732        0.00000040        0.00001441        0.00014175        0.00001441        0.00000000
      45         -0.782943        2.000000        0.00042221        0.00116721        0.00035583        0.00116731        0.00000040        0.00001441        0.00014175        0.00001441        0.00000000
      46         -0.763330        2.000000        0.00002774        0.00000309        0.00010734        0.00085568        0.00000000        0.00000002        0.00012825        0.00000461        0.00002123
      47         -0.763328        2.000000        0.00002773        0.00085565        0.00010698        0.00000309        0.00000000        0.00000458        0.00012821        0.00000002        0.00002122
      48         -0.763294        2.000000        0.00002495        0.00000006        0.00010157        0.00085210        0.00000000        0.00000000        0.00012850        0.00000418        0.00002102
      49         -0.763280        2.000000        0.00002429        0.00085263        0.00009863        0.00000007        0.00000000        0.00000403        0.00012832        0.00000000        0.00002090
      50         -0.763133        2.000000        0.00004002        0.00000086        0.00015953        0.00080044        0.00000000        0.00000001        0.00013237        0.00000734        0.00002126
      51         -0.763128        2.000000        0.00003987        0.00080032        0.00015944        0.00000086        0.00000000        0.00000733        0.00013251        0.00000001        0.00002120
      52         -0.763082        2.000000        0.00003673        0.00079121        0.00015248        0.00000001        0.00000000        0.00000674        0.00013261        0.00000000        0.00002094
      53         -0.763061        2.000000        0.00003666        0.00000002        0.00015160        0.00078821        0.00000000        0.00000000        0.00013247        0.00000660        0.00002096
      54         -0.762988        2.000000        0.00003000        0.00076851        0.00013398        0.00000013        0.00000000        0.00000530        0.00013168        0.00000000        0.00002031
      55         -0.762969        2.000000        0.00002962        0.00000014        0.00013347        0.00076701        0.00000000        0.00000000        0.00013185        0.00000522        0.00002018
      56         -0.762911        2.000000        0.00002943        0.00071175        0.00012870        0.00012759        0.00000000        0.00000451        0.00013206        0.00000080        0.00002146
      57         -0.762909        2.000000        0.00002936        0.00012756        0.00012847        0.00071185        0.00000000        0.00000080        0.00013208        0.00000449        0.00002145
      58         -0.762877        2.000000        0.00002710        0.00082876        0.00012552        0.00000070        0.00000000        0.00000488        0.00013238        0.00000001        0.00002126
      59         -0.762860        2.000000        0.00002651        0.00000070        0.00012273        0.00082841        0.00000000        0.00000000        0.00013211        0.00000471        0.00002116
      60         -0.762733        2.000000        0.00003624        0.00000066        0.00015010        0.00078010        0.00000000        0.00000001        0.00013267        0.00000625        0.00002128
      61         -0.762723        2.000000        0.00003599        0.00077981        0.00014888        0.00000065        0.00000000        0.00000620        0.00013263        0.00000001        0.00002121
      62         -0.762676        2.000000        0.00003928        0.00078873        0.00015614        0.00000086        0.00000000        0.00000678        0.00013248        0.00000001        0.00002162
      63         -0.762668        2.000000        0.00003916        0.00000086        0.00015611        0.00078797        0.00000000        0.00000001        0.00013260        0.00000675        0.00002158
      64         -0.762594        2.000000        0.00002958        0.00000020        0.00013352        0.00076154        0.00000000        0.00000000        0.00013221        0.00000509        0.00002049
      65         -0.762574        2.000000        0.00002920        0.00075982        0.00013309        0.00000020        0.00000000        0.00000501        0.00013242        0.00000000        0.00002037
      66         -0.758465        2.000000        0.00001303        0.00072013        0.00005306        0.00082989        0.00000048        0.00000933        0.00005144        0.00000994        0.00000535
      67         -0.758463        2.000000        0.00001301        0.00082280        0.00005306        0.00072665        0.00000048        0.00000988        0.00005144        0.00000937        0.00000535
      68         -0.758460        2.000000        0.00001295        0.00073521        0.00005242        0.00081469        0.00000048        0.00000938        0.00005135        0.00000983        0.00000535
      69         -0.758453        2.000000        0.00001302        0.00082108        0.00005310        0.00072847        0.00000048        0.00000988        0.00005146        0.00000939        0.00000535
      70         -0.758429        2.000000        0.00001172        0.00061209        0.00005064        0.00092101        0.00000049        0.00000860        0.00005156        0.00000995        0.00000527
      71         -0.758428        2.000000        0.00001173        0.00060544        0.00005070        0.00092773        0.00000049        0.00000858        0.00005156        0.00000998        0.00000527
      72         -0.758418        2.000000        0.00001130        0.00092535        0.00004899        0.00060804        0.00000048        0.00000983        0.00005143        0.00000859        0.00000525
      73         -0.758417        2.000000        0.00001135        0.00092403        0.00004944        0.00060893        0.00000048        0.00000985        0.00005150        0.00000861        0.00000525
      74         -0.758273        2.000000        0.00001839        0.00065607        0.00006537        0.00085901        0.00000046        0.00000914        0.00005239        0.00001158        0.00000534
      75         -0.758271        2.000000        0.00001842        0.00061374        0.00006536        0.00090156        0.00000046        0.00000864        0.00005237        0.00001208        0.00000535
      76         -0.758267        2.000000        0.00001832        0.00085879        0.00006524        0.00065605        0.00000045        0.00001156        0.00005240        0.00000915        0.00000534
      77         -0.758266        2.000000        0.00001830        0.00090243        0.00006526        0.00061250        0.00000045        0.00001209        0.00005243        0.00000863        0.00000534
      78         -0.758238        2.000000        0.00001679        0.00089030        0.00006223        0.00060304        0.00000046        0.00001151        0.00005258        0.00000831        0.00000524
      79         -0.758237        2.000000        0.00001680        0.00089352        0.00006223        0.00059999        0.00000046        0.00001155        0.00005257        0.00000827        0.00000524
      80         -0.758223        2.000000        0.00001679        0.00060187        0.00006187        0.00088992        0.00000045        0.00000837        0.00005247        0.00001134        0.00000526
      81         -0.758223        2.000000        0.00001679        0.00060591        0.00006184        0.00088602        0.00000045        0.00000842        0.00005246        0.00001129        0.00000526
      82         -0.758154        2.000000        0.00001348        0.00082881        0.00005687        0.00070635        0.00000041        0.00001001        0.00005259        0.00000927        0.00000544
      83         -0.758150        2.000000        0.00001352        0.00086737        0.00005495        0.00058012        0.00000050        0.00001009        0.00005251        0.00000775        0.00000504
      84         -0.758149        2.000000        0.00001351        0.00086724        0.00005494        0.00058014        0.00000050        0.00001009        0.00005251        0.00000775        0.00000504
      85         -0.758148        2.000000        0.00001341        0.00072310        0.00005610        0.00081340        0.00000041        0.00000935        0.00005249        0.00000988        0.00000544
      86         -0.758147        2.000000        0.00001352        0.00073003        0.00005743        0.00080495        0.00000041        0.00000943        0.00005269        0.00000990        0.00000544
      87         -0.758145        2.000000        0.00001348        0.00078900        0.00005710        0.00074649        0.00000041        0.00000980        0.00005263        0.00000952        0.00000545
      88         -0.758136        2.000000        0.00001322        0.00057905        0.00005452        0.00086687        0.00000048        0.00000777        0.00005256        0.00001000        0.00000502
      89         -0.758135        2.000000        0.00001323        0.00057992        0.00005454        0.00086617        0.00000048        0.00000778        0.00005256        0.00001000        0.00000502
      90         -0.758118        2.000000        0.00001232        0.00091693        0.00005559        0.00060067        0.00000042        0.00001017        0.00005281        0.00000847        0.00000537
      91         -0.758118        2.000000        0.00001232        0.00092055        0.00005560        0.00059707        0.00000043        0.00001018        0.00005281        0.00000846        0.00000537
      92         -0.758106        2.000000        0.00001195        0.00059690        0.00005428        0.00092029        0.00000041        0.00000849        0.00005269        0.00001002        0.00000536
      93         -0.758106        2.000000        0.00001195        0.00060157        0.00005418        0.00091587        0.00000041        0.00000851        0.00005268        0.00001000        0.00000536
      94         -0.757978        2.000000        0.00001695        0.00060848        0.00006113        0.00087701        0.00000042        0.00000838        0.00005267        0.00001101        0.00000536
      95         -0.757977        2.000000        0.00001696        0.00061125        0.00006112        0.00087440        0.00000042        0.00000840        0.00005266        0.00001099        0.00000537
      96         -0.757969        2.000000        0.00001684        0.00087129        0.00006056        0.00061393        0.00000041        0.00001089        0.00005264        0.00000844        0.00000536
      97         -0.757968        2.000000        0.00001684        0.00087860        0.00006051        0.00060670        0.00000041        0.00001095        0.00005262        0.00000837        0.00000536
      98         -0.757931        2.000000        0.00001856        0.00088016        0.00006363        0.00062530        0.00000040        0.00001145        0.00005254        0.00000873        0.00000549
      99         -0.757930        2.000000        0.00001858        0.00088720        0.00006369        0.00061838        0.00000040        0.00001153        0.00005256        0.00000866        0.00000549
     100         -0.757925        2.000000        0.00001845        0.00061590        0.00006359        0.00088898        0.00000040        0.00000865        0.00005257        0.00001152        0.00000548
     101         -0.757923        2.000000        0.00001849        0.00062743        0.00006356        0.00087758        0.00000040        0.00000877        0.00005257        0.00001139        0.00000548
     102         -0.757856        2.000000        0.00001359        0.00057792        0.00005408        0.00086175        0.00000044        0.00000766        0.00005280        0.00000985        0.00000513
     103         -0.757855        2.000000        0.00001359        0.00057765        0.00005409        0.00086219        0.00000044        0.00000766        0.00005280        0.00000986        0.00000513
     104         -0.757841        2.000000        0.00001331        0.00086065        0.00005371        0.00057760        0.00000043        0.00000976        0.00005285        0.00000770        0.00000511
     105         -0.757839        2.000000        0.00001331        0.00086118        0.00005372        0.00057698        0.00000042        0.00000977        0.00005285        0.00000769        0.00000511
     106         -0.753010        2.000000        0.00000001        0.00100893        0.00000002        0.00102285        0.00000000        0.00001812        0.00000000        0.00001857        0.00000000
     107         -0.753007        2.000000        0.00000000        0.00102273        0.00000000        0.00100907        0.00000000        0.00001856        0.00000000        0.00001813        0.00000000
     108         -0.752980        2.000000        0.00000000        0.00098501        0.00000002        0.00102219        0.00000000        0.00001736        0.00000000        0.00001839        0.00000000
     109         -0.752975        2.000000        0.00000001        0.00102277        0.00000000        0.00098452        0.00000000        0.00001842        0.00000000        0.00001733        0.00000000
     110         -0.752829        2.000000        0.00000002        0.00103373        0.00000000        0.00095833        0.00000001        0.00001913        0.00000000        0.00001627        0.00000000
     111         -0.752818        2.000000        0.00000000        0.00095999        0.00000002        0.00103201        0.00000000        0.00001636        0.00000000        0.00001902        0.00000000
     112         -0.752815        2.000000        0.00000001        0.00102353        0.00000002        0.00099811        0.00000001        0.00001876        0.00000000        0.00001779        0.00000000
     113         -0.752812        2.000000        0.00000000        0.00099850        0.00000000        0.00102319        0.00000000        0.00001780        0.00000000        0.00001874        0.00000000
     114         -0.752736        2.000000        0.00000002        0.00096565        0.00000000        0.00096126        0.00000001        0.00001651        0.00000000        0.00001634        0.00000000
     115         -0.752730        2.000000        0.00000001        0.00096112        0.00000002        0.00096579        0.00000000        0.00001633        0.00000000        0.00001651        0.00000000
     116         -0.738835        2.000000        0.00000002        0.00015087        0.00000000        0.00015076        0.00000000        0.00000057        0.00000000        0.00000057        0.00002797
     117         -0.738834        2.000000        0.00000001        0.00015076        0.00000000        0.00015076        0.00000000        0.00000057        0.00000000        0.00000057        0.00002797
     118         -0.738833        2.000000        0.00000001        0.00015056        0.00000000        0.00015076        0.00000000        0.00000057        0.00000000        0.00000057        0.00002796
     119         -0.738832        2.000000        0.00000001        0.00015060        0.00000000        0.00015073        0.00000000        0.00000057        0.00000000        0.00000057        0.00002796
     120         -0.738813        2.000000        0.00000002        0.00014848        0.00000000        0.00014825        0.00000000        0.00000048        0.00000000        0.00000048        0.00002806
     121         -0.738811        2.000000        0.00000001        0.00014845        0.00000000        0.00014823        0.00000000        0.00000048        0.00000000        0.00000048        0.00002806
     122         -0.738811        2.000000        0.00000002        0.00014844        0.00000001        0.00014824        0.00000000        0.00000048        0.00000001        0.00000048        0.00002806
     123         -0.738809        2.000000        0.00000001        0.00014846        0.00000000        0.00014819        0.00000000        0.00000048        0.00000000        0.00000048        0.00002806
     124         -0.738689        2.000000        0.00000001        0.00014173        0.00000001        0.00014106        0.00000000        0.00000060        0.00000000        0.00000059        0.00002816
     125         -0.738688        2.000000        0.00000002        0.00014173        0.00000001        0.00014102        0.00000000        0.00000060        0.00000000        0.00000059        0.00002815
     126         -0.738688        2.000000        0.00000000        0.00014173        0.00000000        0.00014101        0.00000000        0.00000060        0.00000000        0.00000059        0.00002816
     127         -0.738687        2.000000        0.00000001        0.00014174        0.00000000        0.00014097        0.00000000        0.00000060        0.00000000        0.00000059        0.00002816
     128         -0.738669        2.000000        0.00000003        0.00014453        0.00000001        0.00014442        0.00000000        0.00000070        0.00000001        0.00000070        0.00002807
     129         -0.738669        2.000000        0.00000001        0.00014466        0.00000000        0.00014443        0.00000000        0.00000071        0.00000000        0.00000070        0.00002808
     130         -0.738668        2.000000        0.00000002        0.00014455        0.00000001        0.00014439        0.00000000        0.00000070        0.00000001        0.00000070        0.00002807
     131         -0.738668        2.000000        0.00000001        0.00014462        0.00000000        0.00014448        0.00000000        0.00000071        0.00000000        0.00000070        0.00002808
     132         -0.738619        2.000000        0.00000001        0.00013429        0.00000001        0.00013434        0.00000000        0.00000040        0.00000000        0.00000040        0.00002828
     133         -0.738618        2.000000        0.00000002        0.00013425        0.00000001        0.00013434        0.00000000        0.00000040        0.00000000        0.00000040        0.00002828
     134         -0.738617        2.000000        0.00000001        0.00013426        0.00000001        0.00013433        0.00000000        0.00000040        0.00000000        0.00000040        0.00002828
     135         -0.738616        2.000000        0.00000001        0.00013427        0.00000001        0.00013432        0.00000000        0.00000040        0.00000000        0.00000040        0.00002828
     136         -0.733605        2.000000        0.00000401        0.00000569        0.00002963        0.00000739        0.00000000        0.00000040        0.00002058        0.00000053        0.00013044
     137         -0.733604        2.000000        0.00000401        0.00000493        0.00002961        0.00000812        0.00000000        0.00000035        0.00002058        0.00000058        0.00013042
     138         -0.733600        2.000000        0.00000401        0.00001031        0.00002963        0.00000276        0.00000000        0.00000073        0.00002058        0.00000020        0.00013045
     139         -0.733595        2.000000        0.00000401        0.00000518        0.00002965        0.00000787        0.00000000        0.00000037        0.00002059        0.00000056        0.00013041
     140         -0.733584        2.000000        0.00000378        0.00000832        0.00002876        0.00000425        0.00000000        0.00000064        0.00002058        0.00000033        0.00013050
     141         -0.733580        2.000000        0.00000378        0.00000788        0.00002876        0.00000466        0.00000000        0.00000061        0.00002059        0.00000036        0.00013050
     142         -0.733580        2.000000        0.00000378        0.00000781        0.00002877        0.00000473        0.00000000        0.00000060        0.00002059        0.00000037        0.00013050
     143         -0.733579        2.000000        0.00000376        0.00000114        0.00002874        0.00001137        0.00000000        0.00000009        0.00002058        0.00000089        0.00013049
     144         -0.733476        2.000000        0.00000603        0.00000744        0.00005096        0.00000156        0.00000000        0.00000049        0.00001954        0.00000011        0.00013056