# Projected DOS for atomic kind O at iteration step i = 0, E(Fermi) =    -0.058922 a.u.
#     MO Eigenvalue [a.u.]      Occupation                 s                py                pz                px               d-2               d-1                d0               d+1               d+2
       1         -0.806592        2.000000        0.50975214        0.00000023        0.00000010        0.00000024        0.00000000        0.00000002        0.00119020        0.00000002        0.00000026
       2         -0.806522        2.000000        0.51009292        0.00000021        0.00000012        0.00000025        0.00000000        0.00000002        0.00118792        0.00000002        0.00000018
       3         -0.806289        2.000000        0.50899128        0.00000027        0.00000009        0.00000029        0.00000000        0.00000002        0.00118001        0.00000003        0.00000022
       4         -0.806256        2.000000        0.50934149        0.00000018        0.00000009        0.00000015        0.00000000        0.00000002        0.00117776        0.00000002        0.00000020
       5         -0.806064        2.000000        0.51004258        0.00000024        0.00000006        0.00000019        0.00000000        0.00000002        0.00117242        0.00000002        0.00000016
       6         -0.794178        2.000000        0.51632457        0.00191410        0.00005329        0.00564959        0.00000005        0.00010566        0.00051932        0.00031184        0.00000865
       7         -0.794171        2.000000        0.51632856        0.00529345        0.00005344        0.00226927        0.00000005        0.00029217        0.00051915        0.00012526        0.00000861
       8         -0.794168        2.000000        0.51632909        0.00568923        0.00005336        0.00187416        0.00000004        0.00031395        0.00051920        0.00010352        0.00000863
       9         -0.794160        2.000000        0.51634553        0.00222965        0.00005341        0.00533288        0.00000005        0.00012296        0.00051893        0.00029425        0.00000861
      10         -0.794110        2.000000        0.51665177        0.00403998        0.00005399        0.00351709        0.00000005        0.00022374        0.00051812        0.00019462        0.00000858
      11         -0.794109        2.000000        0.51665448        0.00473283        0.00005392        0.00282424        0.00000005        0.00026209        0.00051813        0.00015628        0.00000859
      12         -0.794107        2.000000        0.51665404        0.00281308        0.00005393        0.00474411        0.00000004        0.00015577        0.00051807        0.00026250        0.00000857
      13         -0.794102        2.000000        0.51666772        0.00352745        0.00005394        0.00402987        0.00000004        0.00019525        0.00051797        0.00022291        0.00000858
      14         -0.793898        2.000000        0.51575139        0.00377244        0.00005386        0.00375757        0.00000006        0.00021040        0.00051401        0.00020948        0.00000852
      15         -0.793896        2.000000        0.51574974        0.00406353        0.00005382        0.00346538        0.00000006        0.00022665        0.00051385        0.00019319        0.00000852
      16         -0.793891        2.000000        0.51575927        0.00403165        0.00005383        0.00349777        0.00000006        0.00022486        0.00051386        0.00019496        0.00000851
      17         -0.793889        2.000000        0.51576369        0.00319056        0.00005378        0.00433882        0.00000006        0.00017787        0.00051372        0.00024177        0.00000851
      18         -0.793872        2.000000        0.51613187        0.00465058        0.00005448        0.00287173        0.00000003        0.00026054        0.00051290        0.00016049        0.00000847
      19         -0.793870        2.000000        0.51613759        0.00654624        0.00005436        0.00097535        0.00000003        0.00036669        0.00051296        0.00005451        0.00000852
      20         -0.793868        2.000000        0.51613894        0.00094577        0.00005454        0.00657821        0.00000003        0.00005298        0.00051265        0.00036755        0.00000839
      21         -0.793863        2.000000        0.51615071        0.00289981        0.00005448        0.00462326        0.00000003        0.00016238        0.00051263        0.00025824        0.00000843
      22         -0.793701        2.000000        0.51694664        0.00494064        0.00005568        0.00256881        0.00000004        0.00027814        0.00051028        0.00014463        0.00000831
      23         -0.793700        2.000000        0.51695017        0.00235755        0.00005566        0.00515188        0.00000004        0.00013272        0.00051029        0.00029008        0.00000832
      24         -0.793698        2.000000        0.51695089        0.00318439        0.00005566        0.00432501        0.00000004        0.00017927        0.00051027        0.00024352        0.00000832
      25         -0.793696        2.000000        0.51695822        0.00453651        0.00005566        0.00297277        0.00000004        0.00025534        0.00051019        0.00016736        0.00000831
      26         -0.783375        2.000000        0.52784144        0.00472441        0.00000003        0.00472344        0.00045758        0.00027017        0.00018492        0.00027034        0.00000002
      27         -0.783373        2.000000        0.52784544        0.00472413        0.00000002        0.00472283        0.00045757        0.00027013        0.00018489        0.00027033        0.00000002
      28         -0.783365        2.000000        0.52785589        0.00472129        0.00000002        0.00472223        0.00045762        0.00027024        0.00018480        0.00027012        0.00000002
      29         -0.783362        2.000000        0.52786204        0.00472106        0.00000002        0.00472159        0.00045765        0.00027018        0.00018476        0.00027011        0.00000002
      30         -0.783314        2.000000        0.52814499        0.00471958        0.00000003        0.00472036        0.00045764        0.00027091        0.00018442        0.00027073        0.00000002
      31         -0.783314        2.000000        0.52814969        0.00471936        0.00000003        0.00471969        0.00045763        0.00027087        0.00018440        0.00027073        0.00000002
      32         -0.783313        2.000000        0.52814782        0.00471904        0.00000003        0.00472023        0.00045763        0.00027090        0.00018440        0.00027070        0.00000001
      33         -0.783312        2.000000        0.52815465        0.00471897        0.00000003        0.00471959        0.00045767        0.00027085        0.00018437        0.00027067        0.00000002
      34         -0.783117        2.000000        0.52753528        0.00469411        0.00000009        0.00469421        0.00045893        0.00027137        0.00018268        0.00027124        0.00000008
      35         -0.783115        2.000000        0.52753635        0.00469333        0.00000009        0.00469399        0.00045895        0.00027129        0.00018259        0.00027122        0.00000008
      36         -0.783114        2.000000        0.52753600        0.00469356        0.00000009        0.00469396        0.00045897        0.00027135        0.00018263        0.00027118        0.00000007
      37         -0.783113        2.000000        0.52753748        0.00469276        0.00000009        0.00469364        0.00045896        0.00027128        0.00018255        0.00027116        0.00000008
      38         -0.783099        2.000000        0.52787823        0.00468938        0.00000007        0.00469181        0.00045894        0.00027225        0.00018219        0.00027167        0.00000006
      39         -0.783097        2.000000        0.52788105        0.00468931        0.00000007        0.00469135        0.00045895        0.00027221        0.00018218        0.00027166        0.00000006
      40         -0.783097        2.000000        0.52788223        0.00468884        0.00000007        0.00469178        0.00045896        0.00027224        0.00018217        0.00027163        0.00000005
      41         -0.783096        2.000000        0.52788412        0.00468885        0.00000007        0.00469110        0.00045896        0.00027221        0.00018215        0.00027162        0.00000005
      42         -0.782946        2.000000        0.52861217        0.00468287        0.00000003        0.00468274        0.00045917        0.00027328        0.00018120        0.00027330        0.00000003
      43         -0.782945        2.000000        0.52861260        0.00468279        0.00000003        0.00468268        0.00045917        0.00027327        0.00018119        0.00027329        0.00000002
      44         -0.782944        2.000000        0.52861389        0.00468265        0.00000003        0.00468237        0.00045918        0.00027323        0.00018118        0.00027331        0.00000003
      45         -0.782943        2.000000        0.52861421        0.00468254        0.00000003        0.00468227        0.00045919        0.00027323        0.00018116        0.00027329        0.00000002
      46         -0.763330        2.000000        0.59091500        0.00003875        0.00039856        0.01071288        0.00000011        0.00000292        0.00000260        0.00080575        0.00004829
      47         -0.763328        2.000000        0.59092268        0.01071290        0.00039850        0.00003874        0.00000012        0.00080555        0.00000259        0.00000292        0.00004824
      48         -0.763294        2.000000        0.59121014        0.00000075        0.00040166        0.01074653        0.00000011        0.00000007        0.00000257        0.00080932        0.00004807
      49         -0.763280        2.000000        0.59126055        0.01074368        0.00040201        0.00000075        0.00000012        0.00080913        0.00000256        0.00000007        0.00004811
      50         -0.763133        2.000000        0.59054271        0.00001144        0.00040243        0.01073620        0.00000014        0.00000088        0.00000247        0.00081185        0.00004846
      51         -0.763128        2.000000        0.59056655        0.01073506        0.00040268        0.00001145        0.00000014        0.00081201        0.00000247        0.00000088        0.00004851
      52         -0.763082        2.000000        0.59105824        0.01073973        0.00040686        0.00000011        0.00000007        0.00081339        0.00000230        0.00000002        0.00004806
      53         -0.763061        2.000000        0.59110840        0.00000011        0.00040512        0.01073389        0.00000008        0.00000002        0.00000220        0.00081095        0.00004754
      54         -0.762988        2.000000        0.59174870        0.01071440        0.00041325        0.00000177        0.00000010        0.00081408        0.00000222        0.00000014        0.00004735
      55         -0.762969        2.000000        0.59181350        0.00000178        0.00041305        0.01070908        0.00000011        0.00000015        0.00000220        0.00081348        0.00004729
      56         -0.762911        2.000000        0.59227602        0.00911967        0.00039899        0.00163424        0.00000012        0.00067954        0.00000145        0.00012177        0.00004528
      57         -0.762909        2.000000        0.59228237        0.00163421        0.00039900        0.00911954        0.00000011        0.00012176        0.00000145        0.00067958        0.00004530
      58         -0.762877        2.000000        0.59254432        0.01073610        0.00040190        0.00000898        0.00000012        0.00080178        0.00000143        0.00000068        0.00004513
      59         -0.762860        2.000000        0.59260255        0.00000899        0.00040134        0.01073327        0.00000011        0.00000068        0.00000139        0.00080056        0.00004495
      60         -0.762733        2.000000        0.59216002        0.00000890        0.00040625        0.01072285        0.00000008        0.00000068        0.00000130        0.00080256        0.00004496
      61         -0.762723        2.000000        0.59218076        0.01071672        0.00040742        0.00000890        0.00000007        0.00080344        0.00000132        0.00000067        0.00004519
      62         -0.762676        2.000000        0.59198526        0.01072579        0.00040380        0.00001170        0.00000014        0.00080096        0.00000122        0.00000089        0.00004495
      63         -0.762668        2.000000        0.59201542        0.00001171        0.00040339        0.01072467        0.00000014        0.00000089        0.00000120        0.00080040        0.00004484
      64         -0.762594        2.000000        0.59302190        0.00000268        0.00041495        0.01071355        0.00000011        0.00000021        0.00000121        0.00080532        0.00004453
      65         -0.762574        2.000000        0.59309106        0.01070814        0.00041450        0.00000268        0.00000010        0.00080444        0.00000118        0.00000021        0.00004440
      66         -0.758465        2.000000        0.58836079        0.00231227        0.00009707        0.00400334        0.00096748        0.00015122        0.00000951        0.00026626        0.00001395
      67         -0.758463        2.000000        0.58837047        0.00390062        0.00009696        0.00241749        0.00096745        0.00025907        0.00000954        0.00015835        0.00001394
      68         -0.758460        2.000000        0.58837154        0.00255219        0.00009686        0.00376462        0.00096781        0.00016735        0.00000953        0.00025000        0.00001396
      69         -0.758453        2.000000        0.58839021        0.00386723        0.00009679        0.00244657        0.00096796        0.00025698        0.00000955        0.00016024        0.00001396
      70         -0.758429        2.000000        0.58857317        0.00076572        0.00009762        0.00554880        0.00096804        0.00004596        0.00000957        0.00037184        0.00001389
      71         -0.758428        2.000000        0.58857517        0.00066288        0.00009753        0.00565019        0.00096798        0.00003894        0.00000956        0.00037883        0.00001389
      72         -0.758418        2.000000        0.58861191        0.00560622        0.00009783        0.00070470        0.00096800        0.00037569        0.00000959        0.00004179        0.00001391
      73         -0.758417        2.000000        0.58861332        0.00558834        0.00009779        0.00072185        0.00096805        0.00037452        0.00000959        0.00004296        0.00001391
      74         -0.758273        2.000000        0.58845981        0.00143037        0.00009879        0.00486490        0.00097002        0.00009235        0.00000966        0.00032746        0.00001415
      75         -0.758271        2.000000        0.58846191        0.00070875        0.00009885        0.00558616        0.00096988        0.00004294        0.00000968        0.00037679        0.00001414
      76         -0.758267        2.000000        0.58847766        0.00485819        0.00009895        0.00143706        0.00096971        0.00032702        0.00000967        0.00009278        0.00001417
      77         -0.758266        2.000000        0.58848037        0.00559188        0.00009901        0.00070199        0.00096992        0.00037727        0.00000967        0.00004245        0.00001417
      78         -0.758238        2.000000        0.58884012        0.00557582        0.00010021        0.00070690        0.00097053        0.00037626        0.00000991        0.00004322        0.00001401
      79         -0.758237        2.000000        0.58884228        0.00562786        0.00010018        0.00065358        0.00097055        0.00037986        0.00000991        0.00003956        0.00001400
      80         -0.758223        2.000000        0.58888189        0.00064347        0.00009891        0.00563151        0.00097065        0.00003908        0.00001004        0.00037898        0.00001379
      81         -0.758223        2.000000        0.58888113        0.00071151        0.00009882        0.00556207        0.00097066        0.00004372        0.00001004        0.00037431        0.00001379
      82         -0.758154        2.000000        0.58943595        0.00407162        0.00009652        0.00217028        0.00097029        0.00026730        0.00001146        0.00014123        0.00001266
      83         -0.758150        2.000000        0.58933228        0.00566530        0.00010104        0.00060766        0.00097132        0.00038345        0.00000996        0.00003677        0.00001378
      84         -0.758149        2.000000        0.58933042        0.00566403        0.00010104        0.00060957        0.00097131        0.00038331        0.00000996        0.00003691        0.00001378
      85         -0.758148        2.000000        0.58944503        0.00241978        0.00009653        0.00381799        0.00097054        0.00015779        0.00001147        0.00025056        0.00001267
      86         -0.758147        2.000000        0.58944638        0.00254031        0.00009647        0.00369891        0.00097046        0.00016574        0.00001145        0.00024279        0.00001268
      87         -0.758145        2.000000        0.58946056        0.00344710        0.00009634        0.00279162        0.00097040        0.00022604        0.00001148        0.00018235        0.00001268
      88         -0.758136        2.000000        0.58938115        0.00059960        0.00010095        0.00566805        0.00097134        0.00003627        0.00001000        0.00038337        0.00001375
      89         -0.758135        2.000000        0.58938092        0.00061412        0.00010096        0.00565283        0.00097137        0.00003726        0.00001000        0.00038236        0.00001375
      90         -0.758118        2.000000        0.58964057        0.00558840        0.00009717        0.00064703        0.00097078        0.00036881        0.00001148        0.00004027        0.00001263
      91         -0.758118        2.000000        0.58963909        0.00564582        0.00009723        0.00059088        0.00097069        0.00037258        0.00001148        0.00003655        0.00001264
      92         -0.758106        2.000000        0.58968332        0.00058145        0.00009683        0.00565081        0.00097081        0.00003599        0.00001156        0.00037233        0.00001257
      93         -0.758106        2.000000        0.58968549        0.00065294        0.00009676        0.00557800        0.00097077        0.00004073        0.00001156        0.00036756        0.00001256
      94         -0.757978        2.000000        0.58971550        0.00073769        0.00009861        0.00547713        0.00097293        0.00004732        0.00001166        0.00036338        0.00001273
      95         -0.757977        2.000000        0.58971705        0.00078842        0.00009854        0.00542522        0.00097297        0.00005070        0.00001166        0.00035998        0.00001273
      96         -0.757969        2.000000        0.58973965        0.00538250        0.00009929        0.00082731        0.00097300        0.00035763        0.00001166        0.00005320        0.00001280
      97         -0.757968        2.000000        0.58973962        0.00551100        0.00009927        0.00069760        0.00097296        0.00036623        0.00001166        0.00004455        0.00001280
      98         -0.757931        2.000000        0.58961378        0.00534579        0.00009824        0.00086158        0.00097302        0.00035369        0.00001188        0.00005559        0.00001267
      99         -0.757930        2.000000        0.58961427        0.00546224        0.00009825        0.00074456        0.00097311        0.00036147        0.00001188        0.00004781        0.00001268
     100         -0.757925        2.000000        0.58963632        0.00070347        0.00009793        0.00550232        0.00097305        0.00004512        0.00001191        0.00036386        0.00001265
     101         -0.757923        2.000000        0.58963781        0.00090130        0.00009805        0.00530382        0.00097296        0.00005828        0.00001192        0.00035063        0.00001264
     102         -0.757856        2.000000        0.59033516        0.00057379        0.00010086        0.00562761        0.00097399        0.00003681        0.00001185        0.00037457        0.00001258
     103         -0.757855        2.000000        0.59033639        0.00056809        0.00010088        0.00563275        0.00097402        0.00003642        0.00001185        0.00037494        0.00001258
     104         -0.757841        2.000000        0.59038662        0.00562076        0.00010059        0.00057371        0.00097405        0.00037380        0.00001190        0.00003685        0.00001253
     105         -0.757839        2.000000        0.59038909        0.00563067        0.00010060        0.00056434        0.00097405        0.00037440        0.00001191        0.00003623        0.00001252
     106         -0.753010        2.000000        0.59216711        0.00000117        0.00000003        0.00000116        0.00203172        0.00000005        0.00006390        0.00000005        0.00000000
     107         -0.753007        2.000000        0.59217195        0.00000054        0.00000003        0.00000053        0.00203186        0.00000000        0.00006395        0.00000000        0.00000000
     108         -0.752980        2.000000        0.59230465        0.00000105        0.00000004        0.00000098        0.00203262        0.00000004        0.00006395        0.00000004        0.00000000
     109         -0.752975        2.000000        0.59230643        0.00000069        0.00000004        0.00000060        0.00203273        0.00000001        0.00006398        0.00000001        0.00000000
     110         -0.752829        2.000000        0.59274480        0.00000077        0.00000008        0.00000084        0.00203524        0.00000004        0.00006391        0.00000004        0.00000001
     111         -0.752818        2.000000        0.59274110        0.00000037        0.00000005        0.00000042        0.00203535        0.00000000        0.00006392        0.00000000        0.00000001
     112         -0.752815        2.000000        0.59258921        0.00000141        0.00000009        0.00000138        0.00203425        0.00000006        0.00006386        0.00000006        0.00000001
     113         -0.752812        2.000000        0.59259469        0.00000067        0.00000009        0.00000062        0.00203447        0.00000000        0.00006392        0.00000000        0.00000001
     114         -0.752736        2.000000        0.59308753        0.00000093        0.00000002        0.00000100        0.00203749        0.00000004        0.00006394        0.00000004        0.00000001
     115         -0.752730        2.000000        0.59308703        0.00000051        0.00000002        0.00000062        0.00203759        0.00000001        0.00006396        0.00000001        0.00000001
     116         -0.738835        2.000000        0.68024426        0.00113034        0.00000002        0.00113103        0.00057816        0.00005320        0.00015888        0.00005323        0.00000001
     117         -0.738834        2.000000        0.68024874        0.00113029        0.00000002        0.00113131        0.00057813        0.00005320        0.00015891        0.00005322        0.00000001
     118         -0.738833        2.000000        0.68026204        0.00113167        0.00000002        0.00113092        0.00057811        0.00005320        0.00015900        0.00005320        0.00000001
     119         -0.738832        2.000000        0.68026730        0.00113165        0.00000002        0.00113130        0.00057812        0.00005319        0.00015906        0.00005320        0.00000001
     120         -0.738813        2.000000        0.68041953        0.00113072        0.00000001        0.00113001        0.00057831        0.00005312        0.00015918        0.00005306        0.00000001
     121         -0.738811        2.000000        0.68042431        0.00113115        0.00000001        0.00112996        0.00057829        0.00005313        0.00015922        0.00005305        0.00000001
     122         -0.738811        2.000000        0.68042679        0.00113060        0.00000001        0.00113050        0.00057826        0.00005310        0.00015924        0.00005307        0.00000000
     123         -0.738809        2.000000        0.68042891        0.00113108        0.00000001        0.00113038        0.00057830        0.00005311        0.00015926        0.00005305        0.00000001
     124         -0.738689        2.000000        0.68094620        0.00113309        0.00000003        0.00113091        0.00057916        0.00005253        0.00016107        0.00005234        0.00000001
     125         -0.738688        2.000000        0.68095076        0.00113325        0.00000002        0.00113096        0.00057915        0.00005252        0.00016111        0.00005233        0.00000000
     126         -0.738688        2.000000        0.68094997        0.00113304        0.00000004        0.00113131        0.00057916        0.00005251        0.00016111        0.00005234        0.00000001
     127         -0.738687        2.000000        0.68095463        0.00113337        0.00000003        0.00113120        0.00057915        0.00005252        0.00016115        0.00005233        0.00000001
     128         -0.738669        2.000000        0.68076712        0.00113317        0.00000002        0.00113255        0.00057902        0.00005258        0.00016089        0.00005253        0.00000000
     129         -0.738669        2.000000        0.68076393        0.00113300        0.00000002        0.00113260        0.00057905        0.00005258        0.00016086        0.00005254        0.00000001
     130         -0.738668        2.000000        0.68076905        0.00113329        0.00000002        0.00113260        0.00057904        0.00005258        0.00016090        0.00005252        0.00000001
     131         -0.738668        2.000000        0.68076559        0.00113295        0.00000002        0.00113279        0.00057905        0.00005257        0.00016087        0.00005255        0.00000001
     132         -0.738619        2.000000        0.68136808        0.00113092        0.00000002        0.00113105        0.00057959        0.00005213        0.00016167        0.00005214        0.00000001
     133         -0.738618        2.000000        0.68137131        0.00113084        0.00000002        0.00113124        0.00057959        0.00005212        0.00016169        0.00005214        0.00000000
     134         -0.738617        2.000000        0.68137255        0.00113107        0.00000002        0.00113119        0.00057960        0.00005212        0.00016169        0.00005214        0.00000001
     135         -0.738616        2.000000        0.68137505        0.00113107        0.00000002        0.00113126        0.00057959        0.00005212        0.00016171        0.00005214        0.00000001
     136         -0.733605        2.000000        0.72648694        0.00151733        0.00020283        0.00197128        0.00000008        0.00008250        0.00019255        0.00010719        0.00001944
     137         -0.733604        2.000000        0.72650939        0.00131859        0.00020266        0.00216951        0.00000008        0.00007169        0.00019272        0.00011794        0.00001942
     138         -0.733600        2.000000        0.72651483        0.00275240        0.00020255        0.00073582        0.00000008        0.00014961        0.00019280        0.00003999        0.00001941
     139         -0.733595        2.000000        0.72652554        0.00138810        0.00020274        0.00210042        0.00000007        0.00007543        0.00019280        0.00011420        0.00001942
     140         -0.733584        2.000000        0.72670471        0.00230492        0.00020407        0.00118175        0.00000008        0.00012532        0.00019307        0.00006422        0.00001934
     141         -0.733580        2.000000        0.72672749        0.00218687        0.00020386        0.00129948        0.00000008        0.00011887        0.00019327        0.00007059        0.00001932
     142         -0.733580        2.000000        0.72672797        0.00216653        0.00020385        0.00131982        0.00000008        0.00011776        0.00019327        0.00007170        0.00001932
     143         -0.733579        2.000000        0.72672722        0.00031538        0.00020353        0.00317032        0.00000007        0.00001714        0.00019330        0.00017225        0.00001925
     144         -0.733476        2.000000        0.72705598        0.00287590        0.00020635        0.00061012        0.00000005        0.00015523        0.00019592        0.00003288        0.00001996